/*--------------------------------*- C++ -*----------------------------------*\
| =========                 |                                                 |
| \\      /  F ield         | OpenFOAM: The Open Source CFD Toolbox           |
|  \\    /   O peration     | Version:  v2012                                 |
|   \\  /    A nd           | Website:  www.openfoam.com                      |
|    \\/     M anipulation  |                                                 |
\*---------------------------------------------------------------------------*/
FoamFile
{
    version     2.0;
    format      binary;
    class       volScalarField;
    arch        "LSB;label=32;scalar=64";
    location    "0.0002";
    object      pseudoCoField;
}
// * * * * * * * * * * * * * * * * * * * * * * * * * * * * * * * * * * * * * //

dimensions      [0 0 0 0 0 0 0];


internalField   uniform 92.7721;

boundaryField
{
    above
    {
        type            symmetryPlane;
    }
    top
    {
        type            calculated;
        value           uniform 92.7721;
    }
    inlet
    {
        type            calculated;
        value           uniform 92.7721;
    }
    outlet
    {
        type            calculated;
        value           uniform 92.7721;
    }
    plate
    {
        type            calculated;
        value           uniform 92.7721;
    }
    defaultFaces
    {
        type            empty;
    }
}


// ************************************************************************* //
